nqpoint: 128    
npath: 6      
segment_nqpoint:
- 3
- 10
- 3
- 51
- 10
- 51
labels:
- [ 'A', 'H_1' ]
- [ 'H_1', 'K_1' ]
- [ 'K_1', 'GAMMA' ]
- [ 'GAMMA', 'M_1' ]
- [ 'M_1', 'L_1' ]
- [ 'L_1', 'A' ]
reciprocal_lattice:
- [   0.34531882,  -0.21819817,   0.00000000 ] # a*
- [   0.34531882,   0.21819817,   0.00000000 ] # b*
- [   0.00000000,   0.00000000,   0.19936991 ] # c*
natom: 2      
lattice:
- [     1.447937310000000,    -2.291494940000000,     0.000000000000000 ] # a
- [     1.447937310000000,     2.291494940000000,     0.000000000000000 ] # b
- [     0.000000000000000,     0.000000000000000,     5.015801980000000 ] # c
points:
- symbol: Ti # 1
  coordinates: [  0.690961889999999,  0.309038110000001,  0.750000000000000 ]
  mass: 47.867000
- symbol: Ti # 2
  coordinates: [  0.309038110000001,  0.690961889999999,  0.250000000000000 ]
  mass: 47.867000
supercell_matrix:
- [   16,    0,    0 ]
- [    0,   16,    0 ]
- [    0,    0,    9 ]

phonon:
- q-position: [   -0.0712147,   -0.0712147,    0.4550012 ]
  distance:    0.0000000
  band:
  - # 1
    frequency:    2.3720391854
    eigenvector:
    - # atom 1
      - [ -0.01173450406356,  0.00000000000000 ]
      - [ -0.00000000000002, -0.70404947895818 ]
      - [  0.06462687206651, -0.00000000000000 ]
    - # atom 2
      - [  0.01173450406357, -0.00000000000000 ]
      - [ -0.00000000000002, -0.70404947895818 ]
      - [ -0.06462687206651,  0.00000000000000 ]
  - # 2
    frequency:    2.4847711183
    eigenvector:
    - # atom 1
      - [ -0.25531538617024,  0.00000000000000 ]
      - [ -0.00000000000000, -0.61327928963286 ]
      - [ -0.24228612525723,  0.00000000000000 ]
    - # atom 2
      - [ -0.25531538617024, -0.00000000000000 ]
      - [  0.00000000000000,  0.61327928963286 ]
      - [ -0.24228612525723,  0.00000000000000 ]
  - # 3
    frequency:    2.7561907015
    eigenvector:
    - # atom 1
      - [ -0.50857329957027,  0.00000000000000 ]
      - [  0.00000000000000,  0.34851689974650 ]
      - [ -0.34625015459246, -0.00000000000000 ]
    - # atom 2
      - [ -0.50857329957027,  0.00000000000000 ]
      - [ -0.00000000000000, -0.34851689974649 ]
      - [ -0.34625015459246,  0.00000000000000 ]
  - # 4
    frequency:    3.0851254804
    eigenvector:
    - # atom 1
      - [ -0.59328933231792,  0.00000000000000 ]
      - [  0.00000000000000,  0.04496088760670 ]
      - [  0.38208151845303, -0.00000000000000 ]
    - # atom 2
      - [  0.59328933231792, -0.00000000000000 ]
      - [  0.00000000000000,  0.04496088760670 ]
      - [ -0.38208151845303, -0.00000000000000 ]
  - # 5
    frequency:    4.7085283778
    eigenvector:
    - # atom 1
      - [ -0.41972282824378,  0.00000000000000 ]
      - [ -0.00000000000000, -0.04923904445162 ]
      - [  0.56692879972051,  0.00000000000000 ]
    - # atom 2
      - [ -0.41972282824378, -0.00000000000000 ]
      - [ -0.00000000000000,  0.04923904445162 ]
      - [  0.56692879972051,  0.00000000000000 ]
  - # 6
    frequency:    4.9321312049
    eigenvector:
    - # atom 1
      - [ -0.38453877512175,  0.00000000000000 ]
      - [ -0.00000000000000, -0.04788371084551 ]
      - [ -0.59147027031249, -0.00000000000000 ]
    - # atom 2
      - [  0.38453877512176,  0.00000000000000 ]
      - [  0.00000000000000, -0.04788371084551 ]
      - [  0.59147027031248, -0.00000000000000 ]

- q-position: [   -0.1068215,   -0.0471107,    0.4571662 ]
  distance:    0.0136277
  band:
  - # 1
    frequency:    2.4616146077
    eigenvector:
    - # atom 1
      - [  0.26642309840084,  0.00000000000000 ]
      - [  0.62727290766217,  0.13347373838434 ]
      - [  0.12952281473140,  0.03091979264658 ]
    - # atom 2
      - [  0.25651196925719, -0.07199220089216 ]
      - [  0.56787095986285, -0.29800857784583 ]
      - [  0.11634940263360, -0.06476889392337 ]
  - # 2
    frequency:    2.6415066067
    eigenvector:
    - # atom 1
      - [  0.18403238380019,  0.00000000000000 ]
      - [  0.26086708588171,  0.59654492931939 ]
      - [  0.08185981867302, -0.18845042479801 ]
    - # atom 2
      - [ -0.04073283719345, -0.17946797558715 ]
      - [ -0.63948836025436, -0.12236064029044 ]
      - [  0.16565798334409, -0.12154021998540 ]
  - # 3
    frequency:    2.8484158046
    eigenvector:
    - # atom 1
      - [ -0.48721296047860,  0.00000000000000 ]
      - [  0.08313157708752,  0.32079946506304 ]
      - [ -0.36799280748488, -0.13183955736912 ]
    - # atom 2
      - [ -0.40096163128398, -0.27677832121827 ]
      - [  0.25065611971431, -0.21678253053130 ]
      - [ -0.37774308706384, -0.10055115823984 ]
  - # 4
    frequency:    3.1796218116
    eigenvector:
    - # atom 1
      - [  0.54206363037790,  0.00000000000000 ]
      - [ -0.16931901275238, -0.05424244328210 ]
      - [ -0.41239633850512, -0.06697096293506 ]
    - # atom 2
      - [ -0.51642430204003, -0.16473894391108 ]
      - [  0.17779517090459, -0.00021894213402 ]
      - [  0.41324339879958,  0.06152839374999 ]
  - # 5
    frequency:    4.8288577636
    eigenvector:
    - # atom 1
      - [  0.44060890470289, -0.00000000000000 ]
      - [ -0.10382874776714,  0.04782126681626 ]
      - [ -0.54095484975872, -0.01282034306226 ]
    - # atom 2
      - [  0.43731555813247,  0.05377089843737 ]
      - [ -0.09721667865007, -0.06013484692800 ]
      - [ -0.53847602914749, -0.05329237006612 ]
  - # 6
    frequency:    5.0169438053
    eigenvector:
    - # atom 1
      - [ -0.41207421565908,  0.00000000000000 ]
      - [  0.09002177400440, -0.04680216274403 ]
      - [ -0.56550732621333, -0.01009666061570 ]
    - # atom 2
      - [  0.40999544886305,  0.04133873634544 ]
      - [ -0.08487251578790, -0.05559692703964 ]
      - [  0.56366742788269,  0.04668521501116 ]

- q-position: [   -0.1424283,   -0.0230066,    0.4593312 ]
  distance:    0.0272553
  band:
  - # 1
    frequency:    2.6288697789
    eigenvector:
    - # atom 1
      - [  0.41100982190917,  0.00000000000000 ]
      - [  0.55369893299532,  0.02425730800603 ]
      - [  0.14556361180567, -0.05206952871328 ]
    - # atom 2
      - [  0.36064239939793, -0.19714495545743 ]
      - [  0.47421033620996, -0.28687189200669 ]
      - [  0.15270110785665, -0.02413239651769 ]
  - # 2
    frequency:    2.8508167869
    eigenvector:
    - # atom 1
      - [ -0.41871350463317,  0.00000000000000 ]
      - [ -0.48580066529392,  0.24051468917782 ]
      - [  0.00109302745567, -0.17557962358566 ]
    - # atom 2
      - [  0.20938677208516, -0.36259919834156 ]
      - [  0.45121703641607, -0.30042101816985 ]
      - [ -0.15259573799510, -0.08685585572216 ]
  - # 3
    frequency:    3.0442030984
    eigenvector:
    - # atom 1
      - [ -0.28863208488827,  0.00000000000000 ]
      - [  0.41050405516104, -0.20939998999190 ]
      - [ -0.45147766746371,  0.02230471345498 ]
    - # atom 2
      - [ -0.28862240040207,  0.00236440544245 ]
      - [  0.41220563645031,  0.20603021232543 ]
      - [ -0.45164523392350, -0.01860556731121 ]
  - # 4
    frequency:    3.3550511479
    eigenvector:
    - # atom 1
      - [  0.42287687815745,  0.00000000000000 ]
      - [ -0.32603176977203, -0.00593679641420 ]
      - [ -0.45103949244604, -0.10680150617606 ]
    - # atom 2
      - [ -0.38092541305875, -0.18363192469233 ]
      - [  0.29626583621365,  0.13622963974472 ]
      - [  0.45267211567358,  0.09965511105343 ]
  - # 5
    frequency:    5.0007477401
    eigenvector:
    - # atom 1
      - [  0.45382331326219, -0.00000000000000 ]
      - [ -0.20729949753981,  0.03813832159890 ]
      - [ -0.49954325313461, -0.00856302124141 ]
    - # atom 2
      - [  0.44561452298875,  0.08592611105936 ]
      - [ -0.19632880561869, -0.07669819645191 ]
      - [ -0.49212878458491, -0.08617451170775 ]
  - # 6
    frequency:    5.1419113642
    eigenvector:
    - # atom 1
      - [ -0.43319856089857,  0.00000000000000 ]
      - [  0.18595102371596, -0.03577960952219 ]
      - [ -0.52575705012863, -0.00778250582257 ]
    - # atom 2
      - [  0.42706950307261,  0.07261289630570 ]
      - [ -0.17732272715493, -0.06644256251012 ]
      - [  0.51962294601518,  0.08045518710029 ]

- q-position: [   -0.1424283,   -0.0230066,    0.4593312 ]
  distance:    0.0272553
  band:
  - # 1
    frequency:    2.6288697789
    eigenvector:
    - # atom 1
      - [  0.41100982190917,  0.00000000000000 ]
      - [  0.55369893299532,  0.02425730800603 ]
      - [  0.14556361180567, -0.05206952871328 ]
    - # atom 2
      - [  0.36064239939793, -0.19714495545743 ]
      - [  0.47421033620996, -0.28687189200669 ]
      - [  0.15270110785665, -0.02413239651769 ]
  - # 2
    frequency:    2.8508167869
    eigenvector:
    - # atom 1
      - [ -0.41871350463317,  0.00000000000000 ]
      - [ -0.48580066529392,  0.24051468917782 ]
      - [  0.00109302745567, -0.17557962358566 ]
    - # atom 2
      - [  0.20938677208516, -0.36259919834156 ]
      - [  0.45121703641607, -0.30042101816985 ]
      - [ -0.15259573799510, -0.08685585572216 ]
  - # 3
    frequency:    3.0442030984
    eigenvector:
    - # atom 1
      - [ -0.28863208488827,  0.00000000000000 ]
      - [  0.41050405516104, -0.20939998999190 ]
      - [ -0.45147766746371,  0.02230471345498 ]
    - # atom 2
      - [ -0.28862240040207,  0.00236440544245 ]
      - [  0.41220563645031,  0.20603021232543 ]
      - [ -0.45164523392350, -0.01860556731121 ]
  - # 4
    frequency:    3.3550511479
    eigenvector:
    - # atom 1
      - [  0.42287687815745,  0.00000000000000 ]
      - [ -0.32603176977203, -0.00593679641420 ]
      - [ -0.45103949244604, -0.10680150617606 ]
    - # atom 2
      - [ -0.38092541305875, -0.18363192469233 ]
      - [  0.29626583621365,  0.13622963974472 ]
      - [  0.45267211567358,  0.09965511105343 ]
  - # 5
    frequency:    5.0007477401
    eigenvector:
    - # atom 1
      - [  0.45382331326219, -0.00000000000000 ]
      - [ -0.20729949753981,  0.03813832159890 ]
      - [ -0.49954325313461, -0.00856302124141 ]
    - # atom 2
      - [  0.44561452298875,  0.08592611105936 ]
      - [ -0.19632880561869, -0.07669819645191 ]
      - [ -0.49212878458491, -0.08617451170775 ]
  - # 6
    frequency:    5.1419113642
    eigenvector:
    - # atom 1
      - [ -0.43319856089857,  0.00000000000000 ]
      - [  0.18595102371596, -0.03577960952219 ]
      - [ -0.52575705012863, -0.00778250582257 ]
    - # atom 2
      - [  0.42706950307261,  0.07261289630570 ]
      - [ -0.17732272715493, -0.06644256251012 ]
      - [  0.51962294601518,  0.08045518710029 ]

- q-position: [   -0.1345155,   -0.0150939,    0.4087755 ]
  distance:    0.0387208
  band:
  - # 1
    frequency:    2.3939043116
    eigenvector:
    - # atom 1
      - [  0.43021219742271,  0.00000000000000 ]
      - [  0.54009396743459,  0.03947529433637 ]
      - [  0.14135432625292, -0.04094663742149 ]
    - # atom 2
      - [  0.39217647281575, -0.17686194893498 ]
      - [  0.47611497506006, -0.25802000512700 ]
      - [  0.14569029785604, -0.02078484489149 ]
  - # 2
    frequency:    2.6880498712
    eigenvector:
    - # atom 1
      - [  0.42573124899159,  0.00000000000000 ]
      - [ -0.04694884374233, -0.38168790982380 ]
      - [  0.31273899155630,  0.27029127318136 ]
    - # atom 2
      - [  0.12036160572525,  0.40836280466661 ]
      - [ -0.37938954202994,  0.06287630581320 ]
      - [  0.34768100753813,  0.22356423281672 ]
  - # 3
    frequency:    2.9817226071
    eigenvector:
    - # atom 1
      - [ -0.24406417039358,  0.00000000000000 ]
      - [ -0.41314867305861, -0.46042670081767 ]
      - [ -0.03398862509744,  0.23789258336095 ]
    - # atom 2
      - [  0.20293087340405,  0.13559638597460 ]
      - [  0.59932114357759, -0.15329298658707 ]
      - [ -0.10390723528236,  0.21668270422472 ]
  - # 4
    frequency:    3.4844708912
    eigenvector:
    - # atom 1
      - [  0.48385583988455,  0.00000000000000 ]
      - [ -0.30604771264569,  0.02061882614417 ]
      - [ -0.40715803819661, -0.07755978168019 ]
    - # atom 2
      - [ -0.45290755177016, -0.17026809254803 ]
      - [  0.27921661975457,  0.12699770730237 ]
      - [  0.40840864170503,  0.07067934056742 ]
  - # 5
    frequency:    4.7542760622
    eigenvector:
    - # atom 1
      - [  0.44227408465722, -0.00000000000000 ]
      - [ -0.22613955540900,  0.03101935499557 ]
      - [ -0.50180866393310, -0.02191802767991 ]
    - # atom 2
      - [  0.43184005148939,  0.09550149678943 ]
      - [ -0.21410642338106, -0.07911850840284 ]
      - [ -0.49470292587993, -0.08695602487197 ]
  - # 6
    frequency:    5.1135617776
    eigenvector:
    - # atom 1
      - [ -0.37997395937236,  0.00000000000000 ]
      - [  0.17133693315776, -0.02485554649234 ]
      - [ -0.57028181622243, -0.02059848124486 ]
    - # atom 2
      - [  0.37445287959470,  0.06453875397268 ]
      - [ -0.16462565515081, -0.05359604949534 ]
      - [  0.56549419579485,  0.07656344993460 ]

- q-position: [   -0.1266028,   -0.0071812,    0.3582198 ]
  distance:    0.0501862
  band:
  - # 1
    frequency:    2.1499133573
    eigenvector:
    - # atom 1
      - [ -0.44549325050509,  0.00000000000000 ]
      - [ -0.53021876226342, -0.05328854620764 ]
      - [ -0.12913920610010,  0.02978630875359 ]
    - # atom 2
      - [ -0.41492405371827,  0.16217973329487 ]
      - [ -0.47443635957348,  0.24265561136668 ]
      - [ -0.13112139955494,  0.01927011468782 ]
  - # 2
    frequency:    2.4127289355
    eigenvector:
    - # atom 1
      - [  0.40040311047232,  0.00000000000000 ]
      - [ -0.16117246978172, -0.33707699690912 ]
      - [  0.37386204461852,  0.24557494549920 ]
    - # atom 2
      - [  0.17990176969621,  0.35771218058110 ]
      - [ -0.37355294256254,  0.00746096265099 ]
      - [  0.38736860090012,  0.22366369687538 ]
  - # 3
    frequency:    3.0028135985
    eigenvector:
    - # atom 1
      - [ -0.28669551003502,  0.00000000000000 ]
      - [ -0.53815122909750, -0.30743788252545 ]
      - [  0.01502308206066,  0.18290761203481 ]
    - # atom 2
      - [  0.28441728798994,  0.03607106550529 ]
      - [  0.57255561863420, -0.23728645254480 ]
      - [ -0.03791652234365,  0.17956398544319 ]
  - # 4
    frequency:    3.5564772688
    eigenvector:
    - # atom 1
      - [  0.52706497102972,  0.00000000000000 ]
      - [ -0.32506642309753,  0.01396846456845 ]
      - [ -0.33676983000081, -0.05408604706254 ]
    - # atom 2
      - [ -0.50000118990982, -0.16672220540564 ]
      - [  0.30395635061181,  0.11607684674633 ]
      - [  0.33658594390647,  0.05521884868608 ]
  - # 5
    frequency:    4.4556258104
    eigenvector:
    - # atom 1
      - [  0.43194187875422, -0.00000000000000 ]
      - [ -0.25081360698878,  0.02635486137997 ]
      - [ -0.49871119597404, -0.03333634982036 ]
    - # atom 2
      - [  0.42006253224263,  0.10060445133108 ]
      - [ -0.23777732041124, -0.08404754646703 ]
      - [ -0.49275998343929, -0.08373629995473 ]
  - # 6
    frequency:    5.1028722246
    eigenvector:
    - # atom 1
      - [ -0.30764838224177,  0.00000000000000 ]
      - [  0.15047190213932, -0.01410660146541 ]
      - [ -0.61757097560888, -0.03343311907651 ]
    - # atom 2
      - [  0.30309738716487,  0.05272097295961 ]
      - [ -0.14582857968838, -0.03968393736007 ]
      - [  0.61416469765218,  0.07289312397954 ]

- q-position: [   -0.1186900,    0.0007316,    0.3076642 ]
  distance:    0.0616517
  band:
  - # 1
    frequency:    1.8960669098
    eigenvector:
    - # atom 1
      - [ -0.44959258775018,  0.00000000000000 ]
      - [ -0.53329228600686, -0.06117525371382 ]
      - [ -0.09674806474629,  0.01905893560960 ]
    - # atom 2
      - [ -0.41910504933891,  0.16274044542931 ]
      - [ -0.47498514792906,  0.25006435817242 ]
      - [ -0.09708625833419,  0.01725368080698 ]
  - # 2
    frequency:    2.1215520710
    eigenvector:
    - # atom 1
      - [  0.39603116407001,  0.00000000000000 ]
      - [ -0.18304572732459, -0.30051705507248 ]
      - [  0.40873235380576,  0.22865025990918 ]
    - # atom 2
      - [  0.21446279511858,  0.33293601851492 ]
      - [ -0.35176385791595,  0.00885589889944 ]
      - [  0.41356288362749,  0.21979267433161 ]
  - # 3
    frequency:    3.0066213879
    eigenvector:
    - # atom 1
      - [ -0.34531873295294,  0.00000000000000 ]
      - [ -0.53470014488803, -0.25006648418040 ]
      - [  0.02857785346885,  0.17748461203513 ]
    - # atom 2
      - [  0.34529849844208, -0.00373822175223 ]
      - [  0.53196173750866, -0.25584018699258 ]
      - [ -0.02665483269728,  0.17778357942181 ]
  - # 4
    frequency:    3.5482457120
    eigenvector:
    - # atom 1
      - [  0.54129260478629,  0.00000000000000 ]
      - [ -0.37663217887025, -0.01746650583020 ]
      - [ -0.25319217105086, -0.02718756215175 ]
    - # atom 2
      - [ -0.51396063384952, -0.16982977020926 ]
      - [  0.36309464477051,  0.10158324628327 ]
      - [  0.24893757084492,  0.05362392039972 ]
  - # 5
    frequency:    4.1062109741
    eigenvector:
    - # atom 1
      - [  0.42236604797575, -0.00000000000000 ]
      - [ -0.28492744245773,  0.03166006148524 ]
      - [ -0.48792050166378, -0.03680351361979 ]
    - # atom 2
      - [  0.41138358613732,  0.09569024788056 ]
      - [ -0.27034586345898, -0.09538931318218 ]
      - [ -0.48357159398677, -0.07469556913027 ]
  - # 6
    frequency:    5.1289486828
    eigenvector:
    - # atom 1
      - [ -0.22447724231703,  0.00000000000000 ]
      - [  0.12340908905266, -0.00552346609822 ]
      - [ -0.65767294608731, -0.04261398512270 ]
    - # atom 2
      - [  0.22128658928437,  0.03771309747489 ]
      - [ -0.12072702385357, -0.02617819035007 ]
      - [  0.65548430192839,  0.06848347003951 ]

- q-position: [   -0.1107773,    0.0086443,    0.2571085 ]
  distance:    0.0731171
  band:
  - # 1
    frequency:    1.6318782725
    eigenvector:
    - # atom 1
      - [ -0.43031251759309,  0.00000000000000 ]
      - [ -0.55776535332695, -0.05565314390455 ]
      - [ -0.02496923818852,  0.00286575445192 ]
    - # atom 2
      - [ -0.38770314950923,  0.18669528825852 ]
      - [ -0.47838999799419,  0.29213433830606 ]
      - [ -0.02374013007373,  0.00825115921409 ]
  - # 2
    frequency:    1.8278028246
    eigenvector:
    - # atom 1
      - [  0.41780163697542,  0.00000000000000 ]
      - [ -0.16502334486558, -0.23373569867249 ]
      - [  0.45145122580624,  0.19942041438670 ]
    - # atom 2
      - [  0.28201272412624,  0.30826454757275 ]
      - [ -0.28384549493716,  0.03601133416606 ]
      - [  0.45186331768380,  0.19848489385319 ]
  - # 3
    frequency:    2.9642059517
    eigenvector:
    - # atom 1
      - [ -0.43970635811750,  0.00000000000000 ]
      - [ -0.47803696059185, -0.19243459222289 ]
      - [  0.04754673361604,  0.19709697810369 ]
    - # atom 2
      - [  0.43617816393014, -0.05559038297659 ]
      - [  0.44987243743522, -0.25132687483032 ]
      - [ -0.02224700710512,  0.20152662685121 ]
  - # 4
    frequency:    3.4684036586
    eigenvector:
    - # atom 1
      - [  0.50801064207290,  0.00000000000000 ]
      - [ -0.44958663584064, -0.08043956840049 ]
      - [ -0.18087037090664,  0.02474730647597 ]
    - # atom 2
      - [ -0.45861898562517, -0.21850271962485 ]
      - [  0.44047351139686,  0.12075492970756 ]
      - [  0.15264096033511,  0.10013619464357 ]
  - # 5
    frequency:    3.7164922047
    eigenvector:
    - # atom 1
      - [  0.40862764621925, -0.00000000000000 ]
      - [ -0.33980498339340,  0.07309561075343 ]
      - [ -0.45922816244252, -0.03636683261665 ]
    - # atom 2
      - [  0.39575423946639,  0.10176018474366 ]
      - [ -0.31089683013606, -0.15541414369920 ]
      - [ -0.45381703732082, -0.07914005516965 ]
  - # 6
    frequency:    5.1939528671
    eigenvector:
    - # atom 1
      - [ -0.14791849870924,  0.00000000000000 ]
      - [  0.09473983865166, -0.00059133075378 ]
      - [ -0.68336524106036, -0.04643359075414 ]
    - # atom 2
      - [  0.14603570458396,  0.02352562957842 ]
      - [ -0.09343988603185, -0.01565165800026 ]
      - [  0.68205197323446,  0.06284295383556 ]

- q-position: [   -0.1028645,    0.0165571,    0.2065528 ]
  distance:    0.0845826
  band:
  - # 1
    frequency:    1.3548828067
    eigenvector:
    - # atom 1
      - [  0.37879786656814,  0.00000000000000 ]
      - [  0.58808753241095,  0.02335828786963 ]
      - [ -0.09376812220994,  0.03643020932203 ]
    - # atom 2
      - [  0.30641316035438, -0.22270787789886 ]
      - [  0.46197642619715, -0.36465097974298 ]
      - [ -0.09726844982041,  0.02566066179112 ]
  - # 2
    frequency:    1.5478605562
    eigenvector:
    - # atom 1
      - [ -0.46361027111123,  0.00000000000000 ]
      - [  0.09570836355269,  0.13379146242267 ]
      - [ -0.48572666515761, -0.14857616566563 ]
    - # atom 2
      - [ -0.38311288820479, -0.26107278366619 ]
      - [  0.15443233589254, -0.05666480302537 ]
      - [ -0.48505685213656, -0.15074853380518 ]
  - # 3
    frequency:    2.8288939914
    eigenvector:
    - # atom 1
      - [  0.54312566373262,  0.00000000000000 ]
      - [  0.36379766684165,  0.07522866856425 ]
      - [ -0.07847330451178, -0.24667460124751 ]
    - # atom 2
      - [ -0.51266564216077,  0.17933049365039 ]
      - [ -0.31855568935673,  0.19112919126037 ]
      - [ -0.00737529310471, -0.25875089076800 ]
  - # 4
    frequency:    3.2697591685
    eigenvector:
    - # atom 1
      - [  0.47724282218845,  0.00000000000000 ]
      - [ -0.36036335099773,  0.02834491457907 ]
      - [ -0.33186921033585,  0.17730464454112 ]
    - # atom 2
      - [  0.13078049410219, -0.45897404468312 ]
      - [ -0.12601148596555,  0.33880124605669 ]
      - [ -0.26146071423133,  0.27057790866669 ]
  - # 5
    frequency:    3.4051996414
    eigenvector:
    - # atom 1
      - [ -0.33291751202862,  0.00000000000000 ]
      - [  0.59421292913248,  0.00331197991913 ]
      - [  0.15304939360785,  0.11243593260945 ]
    - # atom 2
      - [  0.20949510936135, -0.25873899777382 ]
      - [ -0.37134653402367,  0.46389840054455 ]
      - [ -0.00892575135602,  0.18970051868199 ]
  - # 6
    frequency:    5.2820264118
    eigenvector:
    - # atom 1
      - [  0.08942832354945,  0.00000000000000 ]
      - [ -0.06908391721309, -0.00116724658297 ]
      - [  0.69650395676827,  0.04594412988820 ]
    - # atom 2
      - [ -0.08846543705368, -0.01308783785689 ]
      - [  0.06851090818296,  0.00895575468827 ]
      - [ -0.69572853205914, -0.05648393173176 ]

- q-position: [   -0.0949518,    0.0244698,    0.1559971 ]
  distance:    0.0960480
  band:
  - # 1
    frequency:    1.0728094118
    eigenvector:
    - # atom 1
      - [ -0.31945695384870,  0.00000000000000 ]
      - [ -0.58230362697077,  0.01702433375536 ]
      - [  0.21928681403438, -0.10243635050720 ]
    - # atom 2
      - [ -0.21900350346016,  0.23257302258531 ]
      - [ -0.41159202690393,  0.41226125856336 ]
      - [  0.22490827427799, -0.08942136699851 ]
  - # 2
    frequency:    1.3000792803
    eigenvector:
    - # atom 1
      - [ -0.50113351428774,  0.00000000000000 ]
      - [ -0.00402649232147,  0.04225662029227 ]
      - [ -0.48758771828189, -0.09654834664216 ]
    - # atom 2
      - [ -0.46269247908932, -0.19248498366514 ]
      - [  0.01251310673436, -0.04056176473965 ]
      - [ -0.48726989935751, -0.09813975462981 ]
  - # 3
    frequency:    2.5544599966
    eigenvector:
    - # atom 1
      - [ -0.56977409794324,  0.00000000000000 ]
      - [ -0.20744517557909,  0.13489159422855 ]
      - [  0.14636862276819,  0.30447407199521 ]
    - # atom 2
      - [  0.40850420756577, -0.39719873500314 ]
      - [  0.24276462926750, -0.04790175196350 ]
      - [  0.10731361464492,  0.32033111363126 ]
  - # 4
    frequency:    2.8881065812
    eigenvector:
    - # atom 1
      - [  0.51759422581163,  0.00000000000000 ]
      - [ -0.29846716187073,  0.25018860358318 ]
      - [ -0.21500472221405,  0.18491133754868 ]
    - # atom 2
      - [ -0.03571536571377, -0.51636052835735 ]
      - [ -0.22899725264433,  0.31501943171719 ]
      - [ -0.16963470474223,  0.22725162326241 ]
  - # 5
    frequency:    3.3278964358
    eigenvector:
    - # atom 1
      - [  0.22764785059298, -0.00000000000000 ]
      - [ -0.65622500710878, -0.11404687316937 ]
      - [ -0.06293703635500, -0.02402990513134 ]
    - # atom 2
      - [ -0.21160171305909,  0.08395390943882 ]
      - [  0.56791072025424, -0.34801632584541 ]
      - [  0.04963886194807, -0.04554657254143 ]
  - # 6
    frequency:    5.3724700731
    eigenvector:
    - # atom 1
      - [ -0.04942273095592,  0.00000000000000 ]
      - [  0.04780288188551,  0.00123757186244 ]
      - [ -0.70242748563416, -0.04320155078065 ]
    - # atom 2
      - [  0.04898639823392,  0.00655279506840 ]
      - [ -0.04754493566261, -0.00511137882695 ]
      - [  0.70195399524918,  0.05031237539513 ]

- q-position: [   -0.0870390,    0.0323826,    0.1054414 ]
  distance:    0.1075135
  band:
  - # 1
    frequency:    0.8314667803
    eigenvector:
    - # atom 1
      - [  0.27481297265729,  0.00000000000000 ]
      - [  0.53131818224973, -0.01506370238829 ]
      - [ -0.34108687622623,  0.16003639275708 ]
    - # atom 2
      - [  0.18287854625150, -0.20512827026442 ]
      - [  0.36481788691443, -0.38656672814159 ]
      - [ -0.34643728632877,  0.14809831458063 ]
  - # 2
    frequency:    1.0929013202
    eigenvector:
    - # atom 1
      - [  0.51747570879707,  0.00000000000000 ]
      - [  0.10399466669749,  0.02606867706014 ]
      - [  0.46652665214488,  0.05547348031509 ]
    - # atom 2
      - [  0.50304538991223,  0.12135256438613 ]
      - [  0.10720800517960, -0.00095407054205 ]
      - [  0.46652611247304,  0.05547801871531 ]
  - # 3
    frequency:    2.1680272290
    eigenvector:
    - # atom 1
      - [ -0.53418464745218,  0.00000000000000 ]
      - [ -0.02734456192834,  0.31321101647294 ]
      - [  0.20497139831072,  0.27163324979442 ]
    - # atom 2
      - [  0.16441870893162, -0.50825163622646 ]
      - [  0.30642207700238,  0.07038733289884 ]
      - [  0.19535737592067,  0.27862769459032 ]
  - # 4
    frequency:    2.5543462655
    eigenvector:
    - # atom 1
      - [  0.59212090190739,  0.00000000000000 ]
      - [ -0.19778318430765,  0.29725571915367 ]
      - [ -0.08484282799170,  0.12130697217518 ]
    - # atom 2
      - [ -0.34369889735412, -0.48215996353200 ]
      - [ -0.12724925619476,  0.33359672864451 ]
      - [ -0.04953207825721,  0.13950003649985 ]
  - # 5
    frequency:    3.2888242780
    eigenvector:
    - # atom 1
      - [  0.14203523230899, -0.00000000000000 ]
      - [ -0.68016576118874, -0.12694189912099 ]
      - [ -0.03286193912197, -0.00252533050816 ]
    - # atom 2
      - [ -0.13145810415983,  0.05378451513002 ]
      - [  0.58144582610838, -0.37504727668261 ]
      - [  0.02945849752238, -0.01478111162109 ]
  - # 6
    frequency:    5.4487943123
    eigenvector:
    - # atom 1
      - [ -0.02371315242504,  0.00000000000000 ]
      - [  0.03018699236961,  0.00079248361774 ]
      - [ -0.70493484930301, -0.03990817086273 ]
    - # atom 2
      - [  0.02354107578034,  0.00285155204016 ]
      - [ -0.03006323539157, -0.00284331081626 ]
      - [  0.70461845958699,  0.04515119348050 ]

- q-position: [   -0.0791263,    0.0402953,    0.0548857 ]
  distance:    0.1189789
  band:
  - # 1
    frequency:    0.7135858949
    eigenvector:
    - # atom 1
      - [  0.20435297134114,  0.00000000000000 ]
      - [  0.39465409264976,  0.02082596371095 ]
      - [ -0.51530532997579,  0.19108821625860 ]
    - # atom 2
      - [  0.15701417995055, -0.13079252344997 ]
      - [  0.28990235857936, -0.26859299339301 ]
      - [ -0.51823642749739,  0.18298987597429 ]
  - # 2
    frequency:    0.9411505081
    eigenvector:
    - # atom 1
      - [  0.54329873377469,  0.00000000000000 ]
      - [  0.24038860125749,  0.09425449596821 ]
      - [  0.37124752869967,  0.01819804078622 ]
    - # atom 2
      - [  0.54088916502390,  0.05111188981953 ]
      - [  0.24818963646668, -0.07122144322666 ]
      - [  0.37131303559196,  0.01680850539315 ]
  - # 3
    frequency:    1.7845276785
    eigenvector:
    - # atom 1
      - [ -0.49947304989822,  0.00000000000000 ]
      - [  0.11689393540204,  0.42511286735889 ]
      - [  0.16669990909510,  0.16838251276536 ]
    - # atom 2
      - [  0.00417566050086, -0.49945559505728 ]
      - [  0.42412076244665,  0.12044384994488 ]
      - [  0.16698299518173,  0.16810178350521 ]
  - # 4
    frequency:    2.2694922343
    eigenvector:
    - # atom 1
      - [  0.63720244696534,  0.00000000000000 ]
      - [ -0.14579394360422,  0.26265509910079 ]
      - [ -0.02779669045092,  0.05437656210213 ]
    - # atom 2
      - [ -0.49750909488379, -0.39813522693493 ]
      - [ -0.05027983604993,  0.29616804885421 ]
      - [ -0.01227258090849,  0.05982349257537 ]
  - # 5
    frequency:    3.2632393466
    eigenvector:
    - # atom 1
      - [  0.08659078609323, -0.00000000000000 ]
      - [ -0.69108928376811, -0.12118133156464 ]
      - [ -0.01438137639900,  0.00242868642046 ]
    - # atom 2
      - [ -0.07833852980852,  0.03689226184016 ]
      - [  0.57359757641096, -0.40407317851395 ]
      - [  0.01404555465939, -0.00392999989424 ]
  - # 6
    frequency:    5.5002710855
    eigenvector:
    - # atom 1
      - [ -0.00825219688172,  0.00000000000000 ]
      - [  0.01502227521612,  0.00037087841358 ]
      - [ -0.70591977219049, -0.03719368459410 ]
    - # atom 2
      - [  0.00820087981667,  0.00091887083272 ]
      - [ -0.01497015458401, -0.00130413772175 ]
      - [  0.70567140936484,  0.04164080868812 ]

- q-position: [   -0.0712135,    0.0482081,    0.0043300 ]
  distance:    0.1304443
  band:
  - # 1
    frequency:    0.6885376070
    eigenvector:
    - # atom 1
      - [  0.01173846673607,  0.00000000000000 ]
      - [  0.03253613569557,  0.00165750046787 ]
      - [ -0.66105973962115,  0.24859783107843 ]
    - # atom 2
      - [  0.00887903903166, -0.00767816821827 ]
      - [  0.02352633078711, -0.02253573148351 ]
      - [ -0.66263775082080,  0.24436053722326 ]
  - # 2
    frequency:    0.9266047868
    eigenvector:
    - # atom 1